500 
Atoms. Timestep: 200000 
A 22.8136 -107.678 40.2935 
A 24.7585 -104.986 41.0216 
A 27.8433 -103.595 40.6913 
A 30.5658 -102.696 38.8638 
A 32.2679 -100.264 37.2055 
A 33.1261 -97.0949 36.3223 
A 33.7017 -93.7451 36.2372 
A 32.6727 -90.6177 37.0863 
A 30.667 -88.1615 38.3128 
A 28.8448 -85.5365 39.4742 
A 26.6501 -82.9521 39.7266 
A 25.2939 -79.927 38.9716 
A 23.7115 -77.6325 37.0245 
A 22.3536 -76.3866 34.1673 
A 21.3957 -75.4346 31.047 
A 19.0901 -74.7193 28.6527 
A 16.2938 -73.4278 27.213 
A 14.5731 -71.7329 24.82 
A 11.6075 -70.6953 23.5205 
A 9.60246 -68.3964 22.0188 
A 8.4672 -65.363 20.9847 
A 8.39288 -62.2522 19.6145 
A 7.09556 -59.2934 18.5549 
A 4.94635 -56.6595 18.4971 
A 1.96439 -55.0301 18.3836 
A -0.902336 -56.4444 19.5419 
A -4.01657 -57.7251 20.0124 
A -7.2621 -58.7383 20.0117 
A -10.1373 -60.5302 19.7254 
A -11.739 -63.4917 19.2519 
A -13.7894 -66.1218 18.5897 
A -16.7764 -66.0749 16.9662 
A -19.7761 -65.9214 15.373 
A -23.0532 -65.6776 14.5007 
A -26.1817 -64.4543 13.9753 
A -28.3447 -61.8463 14.257 
A -29.8449 -59.0747 12.9811 
A -30.2808 -55.7032 13.0369 
A -30.7449 -52.4623 12.1199 
A -30.8768 -49.0735 11.8774 
A -30.0352 -45.9363 10.8726 
A -28.4914 -43.0416 11.7658 
A -28.0859 -39.7002 12.2461 
A -27.3444 -36.3821 12.2426 
A -25.7777 -33.3666 12.3525 
A -24.6543 -30.1669 12.5981 
A -22.4322 -27.6911 11.8967 
A -20.6808 -24.8907 11.0899 
A -19.0895 -22.0462 10.1223 
A -18.2933 -19.0479 8.73062 
A -17.4577 -16.119 7.21971 
A -16.9656 -13.0926 5.75026 
A -16.0293 -10.9316 3.29805 
A -14.705 -8.53635 1.28093 
A -13.8162 -6.47373 -1.27164 
A -13.1494 -4.7033 -4.0967 
A -11.2643 -4.16176 -6.87397 
A -8.0891 -4.81622 -7.89862 
A -4.72291 -4.76957 -7.42263 
A -1.84615 -3.19046 -6.53343 
A 0.446081 -0.760075 -5.90185 
A 2.01572 2.24649 -5.66344 
A 3.64122 5.23238 -5.61711 
A 3.40637 8.46152 -4.57906 
A 3.34512 11.5544 -3.16826 
A 3.35398 14.9353 -3.52785 
A 3.38316 18.2954 -3.00914 
A 3.65371 21.6839 -3.08003 
A 4.26783 24.8771 -2.08693 
A 5.14943 27.8797 -0.757638 
A 6.41887 30.8686 0.249787 
A 8.53471 33.2508 1.43646 
A 11.8534 33.7676 1.96504 
A 14.8141 33.5095 3.61655 
A 17.9989 34.155 4.61691 
A 21.2385 34.9635 5.2582 
A 24.4282 36.1407 5.26018 
A 27.6375 37.2215 4.95617 
A 30.8374 37.9925 5.80815 
A 33.6522 38.1778 7.70627 
A 36.6179 39.0746 9.10636 
A 38.785 40.1003 11.5171 
A 40.3143 41.2463 14.3292 
A 43.2357 41.908 15.9378 
A 46.5041 42.4349 16.712 
A 49.8815 42.183 17.0119 
A 53.2704 42.2041 16.7379 
A 56.6138 42.435 16.1652 
A 59.7217 41.7116 14.9914 
A 62.0022 40.4562 12.8043 
A 64.6347 39.9215 10.72 
A 65.7934 39.3453 7.5759 
A 66.9797 40.6877 4.68616 
A 67.9177 40.7127 1.41823 
A 67.6905 42.281 -1.5899 
A 65.168 42.4947 -3.85963 
A 62.1688 43.849 -4.71432 
A 59.0336 44.8249 -5.59646 
A 55.8053 44.6014 -6.63974 
A 52.4572 44.1669 -7.04118 
A 49.4361 42.7594 -6.3691 
A 46.4118 41.845 -5.11312 
A 43.6584 41.9995 -3.12434 
A 40.5362 42.8289 -2.06428 
A 37.5751 43.7159 -0.648333 
A 34.4278 43.785 0.636298 
A 31.0354 43.8515 0.419289 
A 27.8705 43.0067 -0.491613 
A 24.7904 42.3004 -1.74624 
A 21.889 40.7198 -2.54866 
A 18.843 41.8405 -1.53583 
A 16.2851 43.8119 -0.472439 
A 13.3375 45.4777 -0.162019 
A 11.2606 48.1593 0.0736329 
A 9.38648 50.96 0.524961 
A 7.17488 53.5095 0.936015 
A 4.23973 55.1309 1.49815 
A 1.18549 56.4075 2.27397 
A -1.63365 58.0761 3.18398 
A -4.40905 59.7352 4.23499 
A -7.55211 60.9073 4.78946 
A -10.0626 59.8262 6.81147 
A -12.7097 58.7692 8.66505 
A -16.0366 58.2826 9.16981 
A -19.4299 58.0966 9.0649 
A -22.0945 56.7621 7.42808 
A -24.383 55.8226 5.09572 
A -26.6285 55.7134 2.5451 
A -28.521 55.7065 -0.279544 
A -29.3135 55.7358 -3.58575 
A -28.9989 54.818 -6.8444 
A -28.8691 53.3896 -9.92707 
A -28.2154 52.4119 -13.1172 
A -27.4895 52.3085 -16.4372 
A -25.8839 52.8728 -19.3805 
A -23.58 52.5717 -21.8628 
A -22.2487 51.9783 -24.9345 
A -21.9331 50.8787 -28.1363 
A -21.7717 50.2723 -31.4779 
A -21.3755 52.3402 -34.1475 
A -21.0605 54.1907 -36.9823 
A -19.8327 55.3497 -39.9334 
A -19.7995 56.1417 -43.2398 
A -19.9159 57.5658 -46.325 
A -20.5157 59.7563 -48.8551 
A -21.032 61.4646 -51.7491 
A -21.4156 61.3995 -55.1268 
A -20.7346 60.9228 -58.4236 
A -21.4972 59.8938 -61.5731 
A -22.7238 57.0243 -62.9227 
A -24.7794 54.6339 -64.1957 
A -25.0257 51.2566 -63.89 
A -26.5061 48.2218 -63.4926 
A -28.9577 46.4362 -65.0291 
A -30.3006 44.6775 -67.6105 
A -32.1986 43.4839 -70.1664 
A -35.3183 43.7478 -71.4925 
A -38.4198 44.0485 -70.1323 
A -41.192 44.7764 -68.3033 
A -43.9717 45.5697 -66.5134 
A -46.4612 47.1957 -64.8646 
A -49.3336 46.788 -63.0917 
A -52.0352 47.3925 -61.1178 
A -53.2727 48.2197 -58.061 
A -54.7106 47.9382 -54.9929 
A -57.175 46.7281 -52.9873 
A -58.8931 44.5848 -50.9837 
A -61.8638 42.9315 -51.0267 
A -64.6097 41.3796 -52.2962 
A -66.639 39.1873 -53.9197 
A -68.2697 37.7018 -56.507 
A -70.0641 36.6099 -59.1805 
A -70.7209 34.8281 -62.0008 
A -72.3972 32.8808 -64.2274 
A -74.7675 31.1213 -65.9144 
A -76.9257 29.1395 -67.6391 
A -77.9445 26.2633 -69.1389 
A -79.3044 23.1881 -69.6428 
A -80.0964 20.0484 -70.6798 
A -80.4263 16.6872 -71.0715 
A -80.8728 13.4302 -71.9388 
A -81.8036 10.9089 -74.0213 
A -82.2766 8.80693 -76.6515 
A -82.7102 6.31743 -78.9262 
A -80.4436 5.47264 -81.3155 
A -79.3085 3.22814 -83.6032 
A -77.9525 1.36775 -86.1053 
A -77.9617 -0.422701 -88.9956 
A -77.2349 -0.39695 -92.317 
A -76.2792 0.279904 -95.5089 
A -75.4072 1.47188 -98.5714 
A -75.1184 2.82537 -101.677 
A -73.0914 3.49875 -104.322 
A -72.9434 6.26304 -106.296 
A -72.9114 9.61397 -106.871 
A -71.5965 12.6228 -107.753 
A -69.613 15.3226 -107.173 
A -67.7006 17.4906 -105.383 
A -67.761 20.6126 -104.038 
A -67.1527 23.8227 -103.097 
A -66.2938 26.9859 -102.194 
A -66.3093 30.0363 -100.692 
A -66.3925 32.2363 -98.101 
A -66.8668 32.7785 -94.7782 
A -67.9259 30.9976 -92.0825 
A -68.7535 29.618 -89.0872 
A -70.6737 28.7217 -86.4284 
A -70.8679 26.5452 -83.8236 
A -71.0956 25.5716 -80.5739 
A -71.1428 25.3472 -77.1817 
A -71.6016 25.2588 -73.8139 
A -71.0295 24.2347 -70.6227 
A -72.4363 22.9815 -67.7924 
A -74.1355 23.6843 -64.9325 
A -75.3997 24.9965 -62.062 
A -74.4934 26.8972 -59.3926 
A -73.8673 29.6456 -57.4914 
A -74.6067 32.9642 -57.4877 
A -75.5473 36.2094 -57.8669 
A -75.8905 39.0245 -59.7425 
A -76.1117 41.8399 -61.6358 
A -74.3221 44.7294 -61.7245 
A -72.0622 47.0997 -62.6381 
A -68.755 47.8884 -62.6213 
A -65.5656 46.7572 -62.9492 
A -62.9651 44.7423 -63.808 
A -60.9619 41.9951 -63.8017 
A -58.0177 40.9436 -65.1382 
A -54.7588 40.057 -64.7468 
A -51.754 38.9593 -63.5951 
A -48.6323 38.4275 -62.3572 
A -45.7432 37.7065 -60.7162 
A -43.8972 36.8441 -57.9943 
A -40.8993 37.2656 -56.4468 
A -38.3564 39.2097 -55.3005 
A -36.4508 41.4577 -53.6048 
A -34.3926 43.6414 -52.0063 
A -31.6205 45.2381 -50.8547 
A -30.559 47.0945 -48.2113 
A -30.044 49.1396 -45.5445 
A -29.8819 51.1074 -42.7765 
A -28.7518 51.4444 -39.5876 
A -26.9511 52.7821 -37.0326 
A -26.698 55.5588 -35.0867 
A -28.08 58.2707 -33.5717 
A -30.2377 60.0059 -31.5985 
A -30.8781 59.2116 -28.3552 
A -31.6517 59.0768 -25.0472 
A -30.629 58.868 -21.8113 
A -28.597 58.8239 -19.0857 
A -26.6957 57.3044 -16.7117 
A -26.479 56.1869 -13.5079 
A -25.2111 56.2082 -10.3532 
A -23.4346 54.7635 -7.83984 
A -21.802 53.1648 -5.32215 
A -19.23 51.7199 -3.63185 
A -16.4713 50.325 -2.21632 
A -13.6742 48.7866 -1.04588 
A -10.6679 47.8188 0.213241 
A -7.80352 46.0161 -0.11161 
A -4.99851 44.598 -1.40814 
A -2.08858 43.45 -0.0760719 
A 0.801389 44.2675 1.51763 
A 3.78072 44.6645 3.10696 
A 6.63865 45.6067 4.68953 
A 9.9292 46.2068 5.29953 
A 12.9929 47.4532 6.08722 
A 15.9212 48.9156 5.16726 
A 18.3634 50.8431 3.79609 
A 21.1781 51.52 2.01296 
A 22.7057 51.2325 -1.0109 
A 24.4198 49.2394 -3.16718 
A 27.1651 48.1548 -4.85454 
A 28.952 47.0646 -7.53378 
A 30.3587 45.2839 -10.0656 
A 31.5163 42.9682 -12.2696 
A 32.4796 41.2739 -15.0555 
A 34.3365 40.1892 -17.6891 
A 36.4292 39.4257 -20.2576 
A 39.4782 38.7597 -21.6068 
A 42.8622 38.4417 -21.5205 
A 45.6351 38.453 -19.5529 
A 48.4179 38.5978 -17.605 
A 50.7474 37.6958 -15.2984 
A 53.4943 38.2681 -13.3783 
A 55.5136 38.8194 -10.699 
A 57.3931 39.8554 -8.06196 
A 57.4175 40.2338 -4.68317 
A 57.7154 41.6768 -1.61903 
A 59.252 43.0182 1.10114 
A 61.1332 43.7372 3.84051 
A 61.9585 43.7047 7.13867 
A 63.1337 44.0614 10.3091 
A 64.7255 44.7393 13.236 
A 64.9554 43.5914 16.4281 
A 64.3096 40.9082 18.4138 
A 62.192 38.3756 19.2273 
A 61.21 35.143 19.6091 
A 59.7415 32.1556 18.9169 
A 57.8508 29.7037 17.5122 
A 56.4539 27.4359 15.3988 
A 53.419 27.3171 13.8708 
A 50.0441 27.3523 14.2819 
A 47.0496 25.9138 13.5583 
A 44.8293 24.6543 15.8042 
A 42.1507 23.912 17.7623 
A 40.0739 21.6366 19.2008 
A 39.8293 19.2274 21.5874 
A 39.8608 17.1053 24.2437 
A 40.746 15.9286 27.3083 
A 41.62 15.2549 30.5242 
A 42.1308 14.7185 33.8425 
A 42.2638 12.8377 36.6718 
A 43.2756 10.2518 38.6338 
A 42.9847 8.10992 41.2583 
A 41.9946 6.63656 44.1581 
A 40.4313 5.39113 46.9086 
A 39.4706 2.90745 49.0224 
A 37.4861 0.146892 49.0559 
A 35.2963 -2.45269 49.1378 
A 34.0216 -5.36727 50.3381 
A 33.4174 -8.46915 51.5923 
A 32.3876 -11.2268 53.2938 
A 32.4368 -13.7466 55.576 
A 32.6878 -14.1254 58.9454 
A 31.9296 -14.0885 62.2596 
A 32.1991 -13.3054 65.5572 
A 31.9898 -11.9354 68.6619 
A 32.681 -11.006 71.8586 
A 32.1796 -10.2308 75.1308 
A 33.2831 -8.6934 77.9555 
A 35.5211 -7.44167 80.1881 
A 38.1924 -6.71688 82.1625 
A 40.6012 -5.63883 84.3063 
A 43.2777 -4.01296 85.6303 
A 46.1896 -2.94514 87.0233 
A 49.472 -2.22623 87.5419 
A 52.4161 -0.526177 87.5875 
A 55.2967 0.00436728 85.861 
A 57.5632 -0.0492801 83.3272 
A 59.5141 0.118304 80.5477 
A 60.545 1.51944 77.6264 
A 61.3245 1.82262 74.3309 
A 60.74 0.934728 71.1013 
A 59.153 0.0814933 68.218 
A 56.112 0.0438604 66.6979 
A 53.1357 1.31829 65.6597 
A 50.2251 1.92438 64.0101 
A 47.652 2.9163 62.0214 
A 44.7895 3.96451 60.5156 
A 42.5449 5.81213 58.7527 
A 41.9621 7.85965 56.1016 
A 40.3498 9.11642 53.3848 
A 38.2026 10.4187 51.0928 
A 37.4111 10.4981 47.7871 
A 37.1457 10.4068 44.3987 
A 36.0366 11.111 41.2628 
A 36.1554 11.9978 37.9826 
A 36.6272 12.3788 34.6372 
A 37.8785 10.9888 31.7978 
A 40.8766 10.8253 30.2026 
A 43.2623 10.737 27.7817 
A 45.776 10.4118 25.5155 
A 47.9209 12.3243 23.6985 
A 50.0943 13.8329 21.563 
A 51.8276 16.7108 21.0402 
A 52.7198 19.7917 22.168 
A 54.5262 22.629 22.6646 
A 55.2264 25.7577 23.7965 
A 55.6748 29.0569 23.108 
A 54.7675 31.3523 20.7696 
A 53.7591 32.6614 17.7982 
A 53.5933 35.0553 15.3896 
A 53.1363 37.4004 12.9705 
A 50.9148 39.44 11.4005 
A 48.3401 41.2846 10.1643 
A 45.7963 43.248 9.05329 
A 42.6493 44.5134 8.81821 
A 39.4655 45.0798 7.76813 
A 36.1837 45.9313 7.51353 
A 32.9136 45.0006 7.49883 
A 30.0338 43.2042 7.29923 
A 28.7581 40.3651 8.66746 
A 26.4536 38.0605 9.63584 
A 24.2236 35.5488 10.1639 
A 21.9438 33.1782 9.30222 
A 20.0744 30.9676 7.51932 
A 17.8531 29.4741 5.42281 
A 15.7 27.319 3.91307 
A 12.9415 26.5092 2.09787 
A 11.2392 25.9778 -0.796908 
A 9.1851 24.6439 -3.15518 
A 7.62695 23.4512 -5.93182 
A 5.79195 21.0117 -7.42897 
A 3.32208 20.106 -9.5829 
A 1.13451 18.2093 -11.3653 
A -1.338 15.9357 -10.8386 
A -3.37812 13.5781 -9.48224 
A -4.76246 11.5537 -7.12737 
A -5.99577 9.32964 -4.87068 
A -6.2384 6.29844 -3.34984 
A -6.72618 2.93582 -3.47171 
A -8.04537 -0.158414 -2.97626 
A -8.28311 -3.37566 -1.90257 
A -8.64982 -6.72016 -2.39226 
A -10.4713 -9.57968 -2.64804 
A -13.4737 -11.1257 -2.25413 
A -16.1897 -12.8726 -1.19021 
A -19.1844 -12.7966 0.41789 
A -21.9155 -13.6499 2.25449 
A -24.9409 -14.2257 3.69501 
A -28.0397 -14.1775 5.09339 
A -31.3608 -14.5319 5.72973 
A -34.6895 -14.3475 6.39721 
A -37.5232 -16.1762 5.96662 
A -39.5994 -18.831 5.51734 
A -40.1242 -22.1135 4.80339 
A -40.9577 -25.1532 3.52848 
A -41.8679 -28.3851 4.06397 
A -41.6527 -31.6016 5.14475 
A -41.7509 -34.385 7.09477 
A -41.4136 -37.2823 8.84184 
A -40.7245 -39.1713 11.5835 
A -39.1411 -39.8415 14.5167 
A -37.6367 -40.0748 17.5568 
A -36.1394 -41.4156 20.2991 
A -34.2817 -43.8757 21.7334 
A -31.9657 -46.1927 20.8237 
A -29.3217 -47.2188 18.9484 
A -26.6514 -48.3246 17.1578 
A -23.6519 -49.0817 15.7471 
A -21.2233 -50.3749 13.7498 
A -18.5981 -52.1584 12.5301 
A -15.9751 -54.2967 12.2018 
A -13.9627 -56.9482 11.5093 
A -12.8184 -60.1493 11.5659 
A -10.3732 -62.4474 12.1136 
A -8.34309 -64.3732 14.045 
A -6.23796 -66.6692 15.4076 
A -3.4145 -67.8806 16.8638 
A -2.1048 -68.3045 19.9727 
A 0.482901 -67.7158 22.098 
A 3.37059 -66.9146 23.7041 
A 6.23381 -66.4379 25.4746 
A 9.19904 -66.67 27.1219 
A 12.5798 -66.3606 27.3077 
A 15.9261 -65.7602 27.3541 
A 18.9314 -64.255 27.8666 
A 22.2904 -63.937 27.4477 
A 25.3399 -65.3922 27.8259 
A 26.9701 -68.0109 29.256 
A 27.9624 -71.2163 29.8042 
A 28.2606 -74.5335 30.4877 
A 27.811 -77.8183 31.2415 
A 26.9758 -81.1032 31.5093 
A 25.0648 -83.8399 30.8622 
A 24.0788 -87.0711 31.2455 
A 24.0003 -90.4298 31.7679 
A 22.7862 -93.4686 32.6907 
A 21.4779 -96.5333 32.0153 
A 20.4411 -99.7122 31.3993 
A 18.9428 -102.504 32.6323 
A 17.7886 -105.437 33.9072 
A 17.7798 -107.545 36.5749 
A 15.6115 -109.852 37.8134 
A 14.5102 -112.404 39.7722 
A 13.1985 -113.756 42.6025 
A 12.7625 -115.747 45.324 
A 12.7859 -118.318 47.5484 
A 14.1225 -120.901 49.3104 
A 14.6403 -123.968 50.6831 
A 14.2074 -127.242 49.8732 
A 12.432 -130.119 50.2324 
A 11.1998 -133.269 50.5749 
A 10.7045 -136.161 52.293 
A 10.1216 -137.095 55.5099 
A 9.57786 -137.5 58.8416 
A 9.90338 -135.828 61.7846 
A 8.94086 -132.829 63.0644 
A 7.12674 -129.982 63.4675 
A 5.17329 -127.374 62.4976 
A 3.38419 -125.441 60.3475 
A 0.680367 -123.732 59.195 
A -1.94037 -122.603 57.3461 
A -4.17456 -122.866 54.7967 
A -5.55249 -123.856 51.8503 
A -6.63788 -123.21 48.6935 
A -5.66662 -122.021 45.6598 
A -5.2331 -120.395 42.7059 
A -3.74298 -118.852 40.068 
A -0.968306 -118.441 38.1464 
A 1.10832 -118.281 35.459 
A 4.10533 -117.419 34.1044 
A 7.37037 -118.362 34.1994 
A 10.7549 -118.635 34.0237 
A 13.8039 -117.53 33.0032 
A 16.1029 -116.361 35.2185 
A 17.3974 -115.187 38.1353 
A 18.6516 -112.8 40.2067 
A 20.9521 -110.404 39.481 
500 
Atoms. Timestep: 400000 
A -132.918 0.246713 25.8728 
A -133.129 2.97393 27.8922 
A -132.287 4.65189 30.7269 
A -132.938 6.15631 33.7056 
A -133.307 8.70048 35.9308 
A -131.942 9.9504 38.7832 
A -129.974 11.6095 41.0044 
A -127.342 13.7256 41.396 
A -125.411 16.4681 40.8383 
A -123.835 19.4219 40.2473 
A -121.034 21.3486 40.1846 
A -118.437 23.5262 39.9166 
A -115.666 25.1656 41.0091 
A -112.746 26.8681 41.3776 
A -109.453 27.7144 41.3077 
A -106.506 29.1701 42.1748 
A -103.295 28.9814 41.0723 
A -100.35 30.3466 40.06 
A -97.4239 30.1686 38.338 
A -94.4912 31.45 37.1903 
A -91.5495 33.1356 36.9351 
A -90.0427 36.1821 36.8436 
A -87.739 38.6068 36.2318 
A -85.1143 40.7489 36.5188 
A -82.3164 42.6725 36.3419 
A -79.0783 42.6756 37.3787 
A -75.9259 43.9318 37.5897 
A -72.8154 45.1107 38.2931 
A -69.4398 44.715 38.3862 
A -66.4839 43.1621 37.7453 
A -63.1528 43.8421 37.7821 
A -59.7627 43.749 37.5402 
A -56.5296 42.7374 37.8303 
A -53.2745 41.8504 38.2515 
A -49.9578 41.5935 38.9541 
A -47.1753 40.8809 40.7733 
A -46.768 39.1889 43.6941 
A -44.8129 37.1679 45.6055 
A -43.062 35.599 48.0616 
A -42.6049 32.7277 49.8243 
A -40.1072 31.2046 51.5569 
A -36.819 30.8743 52.3558 
A -33.8149 30.7836 53.9455 
A -31.3283 30.27 56.2067 
A -29.255 31.6008 58.5498 
A -27.3416 33.4623 60.6556 
A -24.9717 34.3664 62.9197 
A -21.6019 34.1272 63.3033 
A -18.5947 32.8369 62.3804 
A -16.2074 31.5824 60.3099 
A -15.3803 30.5247 57.1862 
A -15.0402 27.933 55.0119 
A -15.0517 25.6547 52.4882 
A -16.2247 23.9741 49.7753 
A -17.7385 22.323 47.2176 
A -20.0814 20.854 45.2395 
A -23.3561 20.3703 44.4633 
A -26.591 19.5559 43.8057 
A -29.5105 18.1581 42.7652 
A -32.1199 16.2419 41.7263 
A -33.8016 14.1156 39.6744 
A -34.7011 12.3632 36.9031 
A -36.4587 10.6208 34.5718 
A -37.8265 8.91871 31.9656 
A -38.1492 7.24632 29.023 
A -39.8363 5.31893 26.7872 
A -40.7836 4.33834 23.6726 
A -41.0756 3.69755 20.3463 
A -40.835 3.00877 17.0255 
A -41.3777 2.41117 13.7227 
A -41.0177 2.21372 10.3476 
A -40.5186 1.49928 7.06118 
A -39.4406 2.07114 3.8877 
A -40.0015 2.69731 0.593256 
A -40.7329 3.23181 -2.68383 
A -41.1076 4.9056 -5.61948 
A -40.6311 6.09396 -8.7692 
A -38.3516 6.99877 -11.124 
A -36.707 6.56741 -14.0684 
A -35.3114 4.81549 -16.6264 
A -33.914 1.93448 -17.7696 
A -31.9969 -0.660821 -18.8416 
A -29.595 -3.05167 -19.115 
A -26.8267 -4.91043 -19.7795 
A -24.0683 -6.35123 -21.1488 
A -20.6959 -6.70675 -21.3955 
A -17.4568 -5.67417 -21.437 
A -14.0895 -5.67931 -21.9079 
A -10.7915 -6.50561 -21.8844 
A -7.99443 -8.19919 -20.9527 
A -5.31813 -8.78539 -18.9393 
A -2.69313 -8.05029 -16.9073 
A 0.10747 -8.03713 -14.9795 
A 2.38965 -9.36483 -12.8373 
A 4.85645 -11.1244 -11.295 
A 7.26744 -13.4639 -10.7718 
A 9.68617 -15.8482 -10.9307 
A 12.599 -17.5839 -10.6807 
A 15.9321 -17.8886 -11.2789 
A 19.3118 -18.0208 -10.9319 
A 22.6267 -17.2811 -10.7777 
A 25.7713 -17.338 -12.0694 
A 28.9762 -16.597 -12.9296 
A 32.3607 -16.5492 -12.6096 
A 34.9928 -15.8464 -10.5754 
A 37.7567 -14.8643 -8.85587 
A 40.7922 -14.7221 -7.331 
A 44.0599 -14.4507 -6.43184 
A 47.2039 -15.3354 -5.48709 
A 50.4994 -15.8288 -4.81157 
A 53.7658 -15.6698 -3.88119 
A 56.5547 -15.6376 -1.93677 
A 59.3634 -15.3033 -0.0500837 
A 60.6267 -15.1483 3.10271 
A 61.5734 -13.7074 6.03317 
A 62.501 -11.2079 8.1432 
A 64.1604 -8.34035 8.90686 
A 63.4044 -5.03603 8.64244 
A 63.3507 -1.7991 7.60348 
A 63.2371 -0.0763407 4.67445 
A 63.1599 2.31314 2.25693 
A 64.8291 4.01534 -0.167178 
A 66.2523 5.09218 -3.06112 
A 67.2542 6.16218 -6.12892 
A 69.6779 6.69171 -8.4538 
A 72.8141 7.69576 -9.30015 
A 74.5346 7.20501 -12.1913 
A 75.6275 5.72637 -15.0513 
A 75.6678 4.02873 -17.9968 
A 77.1739 2.42612 -20.5897 
A 77.758 1.51581 -23.8131 
A 77.8609 1.88547 -27.1914 
A 78.7972 2.84999 -30.3144 
A 80.8741 3.00482 -33.0019 
A 83.4011 4.33003 -34.8507 
A 86.1099 5.17667 -36.723 
A 89.1232 6.72768 -36.9956 
A 91.5883 9.06911 -36.9709 
A 93.4913 11.8558 -36.5549 
A 94.973 14.8728 -36.0429 
A 96.7926 17.6817 -35.4434 
A 99.9094 19.0351 -35.5623 
A 101.6 21.9829 -35.4594 
A 103.488 24.1454 -33.6367 
A 105.434 25.6127 -31.2666 
A 106.084 27.899 -28.8354 
A 106.833 30.4377 -26.7015 
A 107.756 33.4718 -25.4752 
A 109.832 36.0129 -24.5842 
A 111.003 37.6029 -21.8166 
A 113.681 37.8726 -19.7395 
A 116.341 36.938 -17.8389 
A 118.639 34.5497 -17.0797 
A 120.643 31.8193 -17.3767 
A 122.434 29.5724 -19.1944 
A 124.233 26.6888 -19.1201 
A 124.624 23.3169 -18.9242 
A 124.646 19.9415 -18.5164 
A 124.606 16.8211 -17.1669 
A 123.539 13.706 -16.3198 
A 124.945 10.6112 -16.2442 
A 125.701 7.3003 -16.4059 
A 125.816 3.93321 -16.8634 
A 123.492 1.47889 -17.2312 
A 120.759 0.381221 -15.532 
A 117.561 -0.405204 -14.6881 
A 114.655 -1.6508 -13.4378 
A 111.818 -3.10752 -12.2574 
A 109.949 -5.21107 -10.3498 
A 110.454 -7.48903 -7.87681 
A 111.798 -10.3219 -6.56213 
A 112.666 -13.6059 -6.70895 
A 113.837 -16.7741 -7.09729 
A 115.758 -19.5784 -7.17042 
A 118.886 -20.8458 -7.58654 
A 122.272 -20.9969 -7.85015 
A 124.921 -20.3387 -9.87755 
A 127.078 -18.0764 -11.2144 
A 129.093 -15.5431 -12.2549 
A 130.963 -13.4237 -14.145 
A 132.713 -10.7397 -15.2828 
A 135.554 -8.87248 -15.2957 
A 138.676 -8.56544 -16.6055 
A 141.531 -10.3655 -17.0197 
A 144.68 -11.5998 -17.3629 
A 146.78 -11.881 -20.0225 
A 149.493 -12.0244 -22.066 
A 152.684 -12.2388 -23.2199 
A 155.841 -13.501 -23.1696 
A 158.851 -15.0806 -23.0945 
A 161.471 -16.85 -21.8441 
A 162.326 -17.5336 -18.6251 
A 162.875 -18.2534 -15.3478 
A 163.341 -20.8685 -13.2255 
A 164.132 -23.573 -11.323 
A 164.452 -26.8109 -10.3364 
A 165.44 -30.0536 -10.0721 
A 166.678 -33.2051 -9.76557 
A 167.29 -36.2679 -8.42212 
A 165.681 -37.7787 -5.83615 
A 162.84 -38.7555 -4.24349 
A 160.2 -38.6084 -2.10603 
A 157.21 -37.9141 -0.643736 
A 154.042 -36.7477 -1.04556 
A 150.746 -36.1845 -1.66276 
A 147.72 -36.3814 -3.19921 
A 145.373 -36.521 -5.65614 
A 145.798 -34.2081 -8.11192 
A 145.325 -32.1097 -10.745 
A 144.083 -29.3535 -12.3013 
A 143.735 -26.316 -13.7888 
A 143.933 -23.1146 -14.9166 
A 142.321 -20.1848 -15.5293 
A 139.722 -18.0954 -16.1946 
A 136.493 -17.6868 -17.176 
A 133.273 -16.5957 -17.2215 
A 130.12 -15.3719 -17.5653 
A 127.155 -13.8896 -18.3218 
A 125.395 -11.3648 -16.8768 
A 123.064 -10.6248 -14.5148 
A 121.349 -8.71809 -12.2826 
A 121.447 -6.15444 -10.0515 
A 121.192 -2.79643 -9.58345 
A 120.746 0.203945 -11.1194 
A 119.475 3.01351 -12.5513 
A 117.985 5.37073 -14.4966 
A 115.225 6.61389 -16.0448 
A 112.47 7.97032 -17.504 
A 110.484 10.0608 -19.3055 
A 109.019 12.4061 -21.2832 
A 108.502 14.7059 -23.7336 
A 109.314 15.888 -26.8163 
A 109.633 15.2018 -30.131 
A 109.855 15.4493 -33.5147 
A 109.709 14.0916 -36.6284 
A 108.339 14.1098 -39.7398 
A 106.67 15.1613 -42.5091 
A 105.133 15.8348 -45.4662 
A 102.632 16.6755 -47.6108 
A 99.265 16.2286 -47.7658 
A 96.0183 17.2122 -47.9924 
A 93.1236 17.1725 -46.2093 
A 90.8939 17.9399 -43.76 
A 89.9448 18.4915 -40.5421 
A 89.5231 18.2883 -37.1744 
A 88.8502 19.3744 -34.0236 
A 87.049 21.2258 -31.8127 
A 86.1128 22.8971 -29.0038 
A 85.744 24.5943 -26.0809 
A 85.0907 25.6077 -22.9018 
A 86.0919 24.8913 -19.7325 
A 85.4651 23.8806 -16.5473 
A 84.6766 22.6092 -13.4941 
A 82.5935 21.9983 -10.8774 
A 81.206 21.1881 -7.88099 
A 80.4508 19.3495 -5.12246 
A 79.5904 17.0573 -2.76335 
A 77.9219 14.8552 -0.78176 
A 75.3822 12.867 0.293931 
A 72.7991 10.7177 0.811762 
A 70.9011 7.90476 1.02345 
A 71.4823 4.56095 1.22639 
A 69.954 1.52419 1.17665 
A 67.6049 -0.594973 2.42205 
A 65.0458 -2.82984 2.2953 
A 63.363 -5.78291 2.38294 
A 61.3986 -8.43385 3.20363 
A 58.8937 -10.4951 4.2218 
A 56.8843 -13.2378 4.21949 
A 53.9879 -14.9545 3.74606 
A 50.9708 -16.0512 2.62609 
A 49.0023 -18.8005 2.27074 
A 47.1382 -21.0546 0.537462 
A 44.8641 -22.1912 -1.7201 
A 43.7953 -22.4299 -4.93889 
A 41.9434 -22.6359 -7.7828 
A 39.35 -22.3443 -9.96211 
A 36.5792 -22.3334 -11.9326 
A 34.7631 -23.2624 -14.6527 
A 32.5481 -23.2288 -17.2319 
A 29.8193 -21.5595 -18.384 
A 26.5963 -20.7481 -19.1006 
A 24.1141 -18.4252 -19.0467 
A 22.7628 -15.5624 -17.8064 
A 21.4855 -12.5179 -16.9943 
A 19.0129 -11.5527 -14.8696 
A 16.5474 -10.7577 -12.6674 
A 14.1015 -10.2892 -10.3527 
A 11.1178 -10.1414 -8.72906 
A 8.49857 -11.2424 -6.86167 
A 5.34927 -12.1155 -5.92373 
A 2.18031 -12.3388 -4.71219 
A -0.797788 -12.172 -3.0803 
A -3.87116 -11.481 -1.80086 
A -6.8217 -10.4597 -0.455062 
A -9.84381 -9.45518 -1.64581 
A -10.1298 -9.40415 -5.03337 
A -9.58119 -9.02097 -8.36687 
A -8.36444 -9.90636 -11.4157 
A -8.03518 -12.2238 -13.8817 
A -8.23944 -14.4735 -16.4228 
A -7.63246 -15.1593 -19.6971 
A -7.15701 -14.6337 -23.0224 
A -5.74168 -14.7471 -26.1118 
A -6.47497 -15.5451 -29.3344 
A -6.8351 -17.2404 -32.2596 
A -8.34352 -19.7604 -33.9724 
A -11.3381 -21.3704 -33.9523 
A -14.4169 -22.6335 -33.2555 
A -17.7749 -22.2062 -33.5739 
A -20.799 -21.7163 -35.0487 
A -23.4642 -21.9039 -37.1514 
A -25.9077 -22.7828 -39.3462 
A -28.1042 -24.1486 -41.553 
A -30.6771 -25.3457 -43.4257 
A -33.2201 -27.5748 -43.7782 
A -33.6727 -30.8539 -44.5548 
A -33.0411 -34.061 -45.4905 
A -33.03 -37.2871 -46.5637 
A -35.0653 -40.0101 -46.6176 
A -36.5144 -42.8905 -47.6963 
A -38.1856 -44.6993 -50.0405 
A -38.7727 -46.823 -52.63 
A -40.437 -47.461 -55.5253 
A -41.568 -46.1045 -58.4306 
A -43.2044 -44.9069 -61.1597 
A -44.9751 -43.0132 -63.3594 
A -46.3715 -39.9612 -63.9029 
A -48.421 -37.2523 -63.7556 
A -51.17 -36.1259 -62.1022 
A -54.1817 -34.9394 -61.062 
A -56.4516 -32.8747 -59.5977 
A -58.9861 -31.2629 -58.0043 
A -61.603 -30.0043 -56.2358 
A -64.4351 -29.0328 -54.6249 
A -67.6283 -29.7526 -53.7053 
A -69.8484 -32.0423 -52.527 
A -71.6485 -34.7961 -51.669 
A -71.3742 -37.704 -49.9286 
A -69.3558 -39.7031 -48.0606 
A -67.1667 -41.3449 -46.0426 
A -64.5967 -43.0812 -44.6496 
A -62.2898 -45.3639 -43.6358 
A -59.0229 -46.2996 -43.5271 
A -55.9544 -47.6292 -44.1406 
A -52.923 -48.9841 -44.872 
A -50.0887 -49.031 -46.7493 
A -47.118 -48.8634 -48.3946 
A -45.124 -47.8886 -50.9702 
A -42.7166 -45.6749 -51.8996 
A -41.4838 -42.973 -53.5549 
A -40.7337 -40.2358 -55.4271 
A -38.9784 -37.6534 -56.7724 
A -36.3447 -35.8975 -58.0137 
A -33.7077 -33.8594 -57.3413 
A -32.0838 -33.9278 -54.3549 
A -30.2273 -35.9314 -52.3303 
A -27.946 -36.2445 -49.8288 
A -25.1502 -36.2819 -47.8944 
A -22.1856 -36.2 -46.2317 
A -19.4777 -35.9008 -44.1975 
A -16.8716 -35.1397 -42.1508 
A -14.6158 -34.5053 -39.6873 
A -13.1738 -33.5775 -36.7514 
A -11.7123 -31.2215 -34.7833 
A -11.9029 -28.3739 -32.9355 
A -12.3794 -26.0391 -30.5102 
A -13.6643 -23.7704 -28.3279 
A -15.0673 -21.0242 -26.8961 
A -15.3237 -17.9103 -25.5554 
A -15.4387 -14.5307 -25.9087 
A -16.4035 -11.5143 -27.1458 
A -17.803 -8.42445 -27.3791 
A -18.8541 -5.20397 -27.0899 
A -20.2981 -2.29446 -26.0852 
A -22.3013 -0.754373 -23.8102 
A -24.2466 -0.386004 -21.0461 
A -26.5086 -0.369751 -18.5078 
A -28.8903 -0.361147 -16.0814 
A -31.5003 -0.0663001 -13.9225 
A -34.284 -0.872225 -12.1443 
A -37.3672 -0.0925243 -10.9421 
A -40.3786 0.633633 -9.54043 
A -42.9091 0.821585 -7.2774 
A -45.5587 0.873492 -5.14749 
A -46.4831 2.43568 -2.27258 
A -45.7641 3.50744 0.872941 
A -43.8538 4.41586 3.53487 
A -42.8453 6.0085 6.36441 
A -40.2503 7.58485 7.89457 
A -37.5914 8.11796 9.94538 
A -37.5559 9.00612 13.2271 
A -36.4101 10.4097 16.1041 
A -35.2772 9.81157 19.2535 
A -34.4642 8.67144 22.3517 
A -33.3448 7.62844 25.388 
A -31.875 5.81467 27.8599 
A -31.4176 3.86221 30.6055 
A -29.4451 2.10559 32.7464 
A -27.8107 1.33092 35.6255 
A -26.9564 1.14079 38.9109 
A -26.2435 3.20507 41.5168 
A -26.328 6.52271 42.2558 
A -27.6595 9.04904 44.101 
A -29.4297 11.6904 45.3049 
A -30.1809 14.8001 46.4562 
A -30.102 17.5762 48.4175 
A -30.4292 20.8786 49.1572 
A -30.8866 24.2209 48.7331 
A -31.9822 27.3789 48.1112 
A -33.1488 30.5258 48.6553 
A -34.6512 33.4927 49.3628 
A -35.8074 36.5836 50.1807 
A -36.013 39.5288 51.867 
A -36.2848 42.0909 54.0855 
A -37.9247 44.3758 55.9961 
A -40.6327 46.1888 56.9653 
A -43.7797 47.4733 57.0476 
A -46.7096 48.0018 55.4055 
A -49.8608 47.6302 54.1841 
A -53.25 47.4867 53.9545 
A -56.4645 48.5722 54.1754 
A -59.7981 48.8602 54.7786 
A -62.7605 49.262 53.1591 
A -64.2558 48.9325 50.1234 
A -65.6875 46.6246 48.0778 
A -68.1881 44.4289 48.7743 
A -71.03 42.5763 49.0018 
A -73.8402 41.2812 47.5927 
A -76.3779 40.8696 45.3676 
A -77.7753 40.2178 42.3373 
A -77.7628 38.7341 39.2782 
A -77.6381 37.9032 35.9836 
A -79.0178 36.8656 33.0545 
A -81.1882 35.0481 31.1715 
A -84.5184 35.4832 30.6417 
A -87.2952 37.3462 31.2571 
A -88.842 40.3722 31.152 
A -90.6863 43.2284 31.1235 
A -93.5347 45.0609 30.8266 
A -96.9089 45.3878 31.0878 
A -100.028 45.4566 32.4402 
A -101.309 43.761 35.0942 
A -104.097 41.9196 35.7237 
A -105.581 39.3051 37.3119 
A -104.866 36.9172 39.6244 
A -104.006 34.2219 41.5101 
A -103.686 31.9273 43.9985 
A -103.622 29.0386 45.7905 
A -105.544 26.3773 46.6756 
A -107.55 23.9933 45.3147 
A -109.378 21.211 44.6253 
A -112.067 19.1431 44.3895 
A -114.473 16.9116 43.5009 
A -115.87 14.4152 41.663 
A -117.283 12.8301 39.0079 
A -119.345 11.6787 36.5619 
A -121.726 9.63072 35.2595 
A -123.566 8.09983 32.8446 
A -125.107 8.11652 29.8138 
A -126.323 7.63096 26.676 
A -128.432 7.88604 24.0221 
A -131.075 8.0992 21.8932 
A -133.288 7.18281 19.4806 
A -135.638 5.0993 18.1783 
A -137.33 2.79425 16.3385 
A -138.828 -0.252899 16.1582 
A -140.305 -3.25625 16.755 
A -141.647 -6.28418 15.9866 
A -142.547 -9.5496 16.2817 
A -142.443 -12.9116 16.7779 
A -141.043 -14.8672 19.1813 
A -140.129 -16.4241 22.0624 
A -140.907 -17.4259 25.217 
A -141.097 -19.2592 28.0741 
A -139.82 -20.9942 30.7044 
A -138.176 -22.4558 33.2969 
A -136.183 -23.8945 35.646 
A -134.377 -26.3057 37.2218 
A -132.824 -28.9577 38.6767 
A -130.538 -31.3227 37.8161 
A -128.017 -33.2662 36.623 
A -125.035 -33.3947 34.994 
A -121.904 -33.3219 33.6711 
A -120.994 -33.6013 30.4069 
A -121.868 -34.0169 27.1474 
A -124.177 -34.9105 24.8178 
A -127.035 -35.4616 23.059 
A -129.906 -34.5293 21.4951 
A -132.486 -32.6951 20.2553 
A -134.96 -30.5701 19.2935 
A -136.279 -27.4373 19.2207 
A -135.442 -24.1722 19.6659 
A -134.234 -20.9962 19.5481 
A -133.469 -17.7245 20.0683 
A -133.061 -14.349 20.0747 
A -132.806 -10.9936 19.5888 
A -133.106 -7.60754 19.6557 
A -132.415 -4.90746 21.6032 
A -132.211 -2.49465 23.99 
500 
Atoms. Timestep: 600000 
A -110.322 -18.8343 7.24888 
A -108.531 -16.2343 5.9872 
A -106.928 -13.4688 4.82829 
A -104.744 -11.1125 3.71503 
A -101.804 -9.40436 3.70946 
A -99.46 -7.15605 2.70476 
A -97.8838 -4.5437 4.20508 
A -95.3752 -3.00717 5.90989 
A -93.7828 -1.15596 8.27571 
A -93.9368 0.703072 11.1183 
A -94.9634 0.0613399 14.2954 
A -95.6573 -0.340366 17.5995 
A -97.4775 0.107724 20.4361 
A -98.3773 1.05 23.5765 
A -98.569 3.46749 25.9596 
A -96.8243 5.03128 28.4234 
A -96.0833 8.11207 29.6562 
A -96.3208 11.1986 31.0622 
A -95.8466 13.9832 32.9546 
A -94.4699 15.7419 35.5181 
A -92.8284 16.2619 38.4499 
A -89.9285 17.3946 39.8164 
A -86.591 17.0459 40.3634 
A -83.7027 16.7529 42.1332 
A -81.4756 16.6324 44.6994 
A -79.3902 14.9139 46.7629 
A -77.9471 12.2618 48.3262 
A -75.6401 9.77919 48.599 
A -72.9572 8.16254 47.2766 
A -69.6233 7.83825 46.6939 
A -66.8058 8.89418 45.1107 
A -63.9533 9.29045 43.3033 
A -60.6541 9.21705 42.4847 
A -57.4715 8.05002 42.2223 
A -54.6951 6.08881 42.1499 
A -52.0062 4.08947 41.5732 
A -49.8022 1.97468 40.0799 
A -46.7602 0.503192 39.7042 
A -44.1325 -1.44264 38.7722 
A -42.0568 -3.11181 36.659 
A -39.0878 -4.70526 36.2054 
A -36.8925 -6.63937 34.4733 
A -35.0643 -9.07297 32.9582 
A -34.7238 -11.0953 30.2464 
A -35.5239 -13.2165 27.7125 
A -36.5326 -16.282 26.6423 
A -36.9891 -19.3206 25.1867 
A -37.0557 -22.1606 23.3186 
A -36.6645 -25.3033 22.0817 
A -36.7351 -28.429 20.7456 
A -35.5126 -30.4811 18.3259 
A -33.3137 -30.9298 15.7718 
A -31.2276 -30.5457 13.1146 
A -28.9966 -28.2272 12.016 
A -27.0301 -26.729 9.68181 
A -26.0463 -25.774 6.57053 
A -24.327 -26.0033 3.64621 
A -22.3701 -26.5571 0.921507 
A -21.5068 -27.4638 -2.23958 
A -21.4279 -27.6317 -5.63451 